# vtk DataFile Version 5.1
vtk output
ASCII
DATASET POLYDATA
POINTS 19008 double
57.657001495 20.99600029 2.2839999199 57.60200119 21.180999756 2.2839999199 57.34400177 21.701999664 2.2820000648 
57.051998138 21.694000244 2.2730000019 56.944999695 21.857999802 2.2720000744 56.917999268 22.052999496 2.2730000019 
56.566001892 22.12100029 2.2630000114 56.569000244 22.327999115 2.2660000324 56.76599884 22.611999512 2.2750000954 
56.328998566 22.642999649 2.2620000839 56.722999573 22.905000687 2.2780001163 57.019001007 23.233999252 2.2909998894 
55.512001038 22.822000504 2.239000082 55.28099823 22.930999756 2.2330000401 55.24200058 23.118000031 2.2339999676 
49.379001617 20.843999863 2.0220000744 49.283000946 20.986000061 2.0199999809 49.35100174 21.107000351 2.0239999294 
49.186000824 21.218999863 2.0199999809 49.229000092 21.422000885 2.0250000954 49.125 21.559999466 2.0230000019 
49.03099823 21.702999115 2.0220000744 48.539001465 21.667999268 2.0069999695 48.395000458 21.784999847 2.0039999485 
48.215000153 21.795999527 1.9980000257 47.854999542 21.813999176 1.9880000353 47.752998352 21.948999405 1.9859999418 
47.72600174 22.118999481 1.9880000353 49.277999878 23.027000427 2.0480000973 47.925998688 22.577999115 2.0009999275 
47.599998474 22.607999802 1.9910000563 48.770999908 23.259000778 2.0360000134 48.571998596 23.350999832 2.0320000648 
46.171001434 22.374000549 1.9440000057 46.076000214 22.506999969 1.942999959 46.041999817 22.670000076 1.9450000525 
47.784000397 23.715999603 2.0130000114 47.694999695 23.858999252 2.0120000839 47.666999817 23.937999725 2.0130000114 
47.846000671 24.216999054 2.0220000744 47.761001587 24.36300087 2.0220000744 45.749000549 23.516000748 1.949000001 
46.083000183 23.871999741 1.9639999866 44.855998993 23.413999557 1.9199999571 44.912998199 23.624000549 1.9249999523 
45.083999634 23.805000305 1.9329999685 45.305999756 24.104000092 1.9440000057 45.283000946 24.274999619 1.94599998 
45.025001526 24.319000244 1.9400000572 45.10100174 24.544000626 1.9450000525 39.902000427 21.874000549 1.7480000257 
39.717998505 21.934999466 1.7430000305 39.696998596 22.004999161 1.743999958 39.705001831 22.173000336 1.746999979 
53.347999573 30.021999359 2.2790000439 44.270999908 25.091999054 1.9299999475 44.221000671 25.247999191 1.9309999943 
44.386001587 25.527999878 1.9409999847 43.40599823 25.145000458 1.9049999714 43.465000153 25.270999908 1.9090000391 
43.096000671 25.23800087 1.8980000019 42.883998871 25.295000076 1.8930000067 43.241001129 25.688999176 1.9099999666 
43.918998718 26.278999329 1.9400000572 43.783000946 26.385000229 1.9379999638 43.21900177 26.229999542 1.9190000296 
41.312000275 25.159999847 1.8450000286 41.032001495 25.166999817 1.8370000124 42.738998413 26.399999619 1.9079999924 
42.916000366 26.695999146 1.9179999828 34.525001526 21.773000717 1.5889999866 34.474998474 21.892999649 1.5900000334 
43.009998322 27.416000366 1.9340000153 42.97600174 27.583999634 1.9359999895 42.879001617 27.712999344 1.9359999895 
43.194000244 28.108999252 1.9520000219 42.922000885 28.124000549 1.9440000057 41.289001465 27.23900032 1.8819999695 
41.187999725 27.357999802 1.881000042 45.786998749 30.520999908 2.0699999332 45.693000793 30.665000916 2.0699999332 
42.846000671 28.948999405 1.9579999447 40.784999847 27.74200058 1.8769999743 40.962001801 28.051000595 1.8880000114 
40.893001556 28.193000793 1.8890000582 40.75799942 28.290000916 1.8869999647 40.998001099 28.551000595 1.8980000019 
40.715000153 28.544000626 1.8910000324 40.429000854 28.534000397 1.8819999695 40.299999237 28.63299942 1.881000042 
40.188999176 28.743999481 1.8799999952 39.853000641 28.694000244 1.8700000048 39.708000183 28.778999329 1.8669999838 
39.171001434 28.483999252 1.8470000029 43.091999054 31.545000076 2.0150001049 39.215000153 28.8939991 1.8559999466 
39.112998962 29.009000778 1.8559999466 39.180000305 29.25 1.8619999886 39.428001404 29.62899971 1.8769999743 
40.471000671 30.61300087 1.9249999523 40.47600174 30.715999603 1.9270000458 43.652999878 33.347000122 2.0669999123 
43.513000488 33.457000732 2.0650000572 41.778999329 32.332000732 1.9950000048 41.762001038 32.528999329 1.9989999533 
43.535999298 34.131999969 2.0799999237 41.125999451 32.450000763 1.9809999466 41.26599884 32.666000366 1.9889999628 
40.936000824 32.615001678 1.9789999723 40.707000732 32.641998291 1.9739999771 40.580001831 32.75 1.9720000029 
40.319999695 32.75 1.9659999609 45.729000092 37.386001587 2.2060000896 45.525001526 37.458999634 2.2030000687 
45.620998383 37.659000397 2.2090001106 45.755001068 38.012001038 2.2209999561 45.64099884 38.159999847 2.2209999561 
42.950000763 -37.116001129 2.1289999485 41.046001434 -35.248001099 2.0390000343 42.995998383 -36.803001404 2.1229999065 
39.486999512 -33.589000702 1.9620000124 41.853000641 -35.373001099 2.0620000362 41.525001526 -34.873001099 2.0429999828 
41.615001678 -34.72700119 2.0420000553 42.231998444 -35.016998291 2.0639998913 42.604999542 -35.099998474 2.0759999752 
42.645999908 -35.020999908 2.0750000477 41.775001526 -34.088001251 2.0320000648 41.784000397 -33.876998901 2.0280001163 
41.833999634 -33.700000763 2.0260000229 42.108001709 -33.703998566 2.0329999924 42.298000336 -33.638000488 2.0369999409 
42.305000305 -33.426998138 2.0320000648 17.291000366 -13.637999535 0.95399999619 17.337999344 -13.586999893 0.95399999619 
17.354000092 -13.512000084 0.95300000906 41.493999481 -32.053001404 1.9819999933 41.671001434 -31.9810009 1.9850000143 
41.689998627 -31.788000107 1.9819999933 42.623001099 -32.287998199 2.0169999599 42.700000763 -32.240001678 2.0179998875 
42.150001526 -31.618000031 1.9910000563 32.835998535 -24.476999283 1.5939999819 32.926998138 -24.385000229 1.5950000286 
12.031999588 -8.873000145 0.71499997377 12.06000042 -8.8350000381 0.71499997377 12.05700016 -8.7749996185 0.71299999952 
12.116999626 -8.7600002289 0.71499997377 16.38599968 -11.796999931 0.89200001955 16.402000427 -11.729999542 0.89099997282 
16.340999603 -11.609000206 0.88700002432 16.483999252 -11.631999969 0.89099997282 33.464000702 -23.426000595 1.5900000334 
33.543998718 -23.325000763 1.5909999609 33.578998566 -23.270999908 1.5909999609 33.624000549 -23.145999908 1.5889999866 
42.305000305 -28.919000626 1.9420000315 44.178001404 -29.993999481 2.0150001049 44.205001831 -29.811000824 2.0120000839 
20.361000061 -13.654999733 1.0379999876 20.398000717 -13.586999893 1.0379999876 20.384000778 -13.531000137 1.0360000134 
34.830001831 -22.941999435 1.618999958 34.904998779 -22.833999634 1.6200000048 35.198001862 -22.868000031 1.628000021 
32.756000519 -21.138000488 1.5269999504 32.771999359 -21.002000809 1.5249999762 32.869998932 -20.920000076 1.5269999504 
32.869998932 -20.847999573 1.5249999762 33.02399826 -20.799999237 1.5290000439 31.74600029 -19.857000351 1.4750000238 
31.781000137 -19.740999222 1.4739999771 32.223999023 -19.875 1.4889999628 32.473999023 -19.888999939 1.496999979 
32.787998199 -19.938999176 1.5069999695 33.511001587 -20.306999207 1.5340000391 33.237998962 -19.999000549 1.5210000277 
32.88299942 -19.645000458 1.5039999485 33.569000244 -19.912000656 1.5290000439 33.604000092 -19.790000916 1.5279999971 
45.077999115 -26.347000122 1.9750000238 33.34400177 -19.3560009 1.5130000114 33.372001648 -19.302000046 1.5130000114 
33.200000763 -19.063999176 1.5039999485 32.909000397 -18.760000229 1.4900000095 27.895000458 -15.789999962 1.2929999828 
27.899000168 -15.677000046 1.2910000086 28.125 -15.687999725 1.2979999781 28.125 -15.57199955 1.2960000038 
28.173000336 -15.484000206 1.2960000038 28.256999969 -15.472000122 1.2979999781 28.287000656 -15.373000145 1.2979999781 
28.434999466 -15.338000298 1.3020000458 28.417999268 -15.213999748 1.2990000248 36.283000946 -19.270000458 1.5980000496 
36.248001099 -19.1060009 1.5950000286 28.410999298 -14.866999626 1.2929999828 28.436000824 -14.824000359 1.2929999828 
30.895999908 -15.979999542 1.3849999905 32.275001526 -16.563999176 1.4359999895 30.927000046 -15.751000404 1.3830000162 
28.916000366 -14.614999771 1.3049999475 28.725000381 -14.404999733 1.2960000038 28.656999588 -14.258000374 1.2910000086 
28.7689991 -14.258000374 1.2949999571 28.726999283 -14.125 1.2920000553 28.736000061 -14.017000198 1.2899999619 
28.88599968 -13.977999687 1.2940000296 29.319000244 -14.074000359 1.3090000153 29.069000244 -13.842000008 1.2979999781 
29.167999268 -13.777000427 1.2999999523 29.069999695 -13.675000191 1.2949999571 29.087999344 -13.57199955 1.2949999571 
29.295000076 -13.55700016 1.300999999 29.2689991 -13.432999611 1.2979999781 28.645999908 -13.038999557 1.2730000019 
28.646999359 -12.930999756 1.2719999552 29.497999191 -13.203000069 1.3020000458 30.010000229 -13.375 1.3200000525 
30.099000931 -13.302000046 1.3220000267 32.22700119 -14.119000435 1.3990000486 32.99200058 -14.329999924 1.4249999523 
32.252998352 -13.888999939 1.3969999552 30.090999603 -12.848999977 1.3159999847 20.701999664 -8.7720003128 0.96899998188 
20.631000519 -8.7030000687 0.9660000205 27.912000656 -11.559000015 1.2309999466 27.926000595 -11.461999893 1.2300000191 
27.927000046 -11.359999657 1.2289999723 27.937999725 -11.262999535 1.2280000448 27.940000534 -11.161999702 1.2269999981 
27.930000305 -11.107000351 1.2250000238 27.926000595 -11.00399971 1.2239999771 27.937999725 -10.906999588 1.2230000496 
27.936000824 -10.805999756 1.2220000029 27.950000763 -10.710000038 1.2209999561 27.945999146 -10.607999802 1.2200000286 
27.955999374 -10.512000084 1.2189999819 27.934999466 -10.454000473 1.2180000544 27.947999954 -10.357999802 1.2170000076 
27.951999664 -10.260000229 1.2159999609 27.954000473 -10.161000252 1.2150000334 27.954999924 -10.062999725 1.2139999866 
27.958999634 -9.9650001526 1.2130000591 27.965000153 -9.8680000305 1.2120000124 27.948999405 -9.8129997253 1.2109999657 
27.961999893 -9.7189998627 1.2100000381 27.965999603 -9.6219997406 1.2089999914 27.968000412 -9.5249996185 1.2079999447 
[...]
POINT_DATA 19008
COLOR_SCALARS Points_RGBA 4
0.686275 0.862745 0.180392 1 0.686275 0.862745 0.180392 1 0.686275 0.862745 0.180392 1 
0.686275 0.862745 0.180392 1 0.678431 0.862745 0.188235 1 
0.686275 0.862745 0.180392 1 0.678431 0.862745 0.188235 1 
0.678431 0.862745 0.188235 1 0.686275 0.862745 0.180392 1 
0.678431 0.862745 0.188235 1 0.686275 0.862745 0.180392 1 
0.686275 0.862745 0.180392 1 0.666667 0.858824 0.196078 1 
0.666667 0.858824 0.196078 1 0.666667 0.858824 0.196078 1 
0.552941 0.839216 0.266667 1 0.552941 0.839216 0.266667 1 
0.552941 0.839216 0.266667 1 0.552941 0.839216 0.266667 1 
0.552941 0.839216 0.266667 1 0.552941 0.839216 0.266667 1 
0.552941 0.839216 0.266667 1 0.545098 0.835294 0.27451 1 
0.545098 0.835294 0.27451 1 0.545098 0.835294 0.27451 1 
0.533333 0.835294 0.278431 1 0.533333 0.835294 0.278431 1 
0.533333 0.835294 0.278431 1 0.564706 0.839216 0.262745 1 
0.545098 0.835294 0.27451 1 0.545098 0.835294 0.27451 1 
0.564706 0.839216 0.262745 1 0.564706 0.839216 0.262745 1 
0.513725 0.827451 0.294118 1 0.513725 0.827451 0.294118 1 
0.513725 0.827451 0.294118 1 0.552941 0.839216 0.266667 1 
0.552941 0.839216 0.266667 1 0.552941 0.839216 0.266667 1 
0.552941 0.839216 0.266667 1 0.552941 0.839216 0.266667 1 
0.52549 0.831373 0.286275 1 0.52549 0.831373 0.286275 1 
0.505882 0.827451 0.298039 1 0.505882 0.827451 0.298039 1 
0.513725 0.827451 0.294118 1 0.513725 0.827451 0.294118 1 
0.513725 0.827451 0.294118 1 0.513725 0.827451 0.294118 1 
0.513725 0.827451 0.294118 1 0.427451 0.807843 0.345098 1 
0.419608 0.803922 0.34902 1 0.419608 0.803922 0.34902 1 
0.427451 0.807843 0.345098 1 0.686275 0.862745 0.180392 1 
0.513725 0.827451 0.294118 1 0.513725 0.827451 0.294118 1 
0.513725 0.827451 0.294118 1 0.494118 0.823529 0.305882 1 
0.505882 0.827451 0.298039 1 0.494118 0.823529 0.305882 1 
0.494118 0.823529 0.305882 1 0.505882 0.827451 0.298039 1 
0.513725 0.827451 0.294118 1 0.513725 0.827451 0.294118 1 
0.505882 0.827451 0.298039 1 0.466667 0.815686 0.321569 1 
0.466667 0.815686 0.321569 1 0.505882 0.827451 0.298039 1 
0.505882 0.827451 0.298039 1 0.356863 0.784314 0.384314 1 
0.356863 0.784314 0.384314 1 0.513725 0.827451 0.294118 1 
0.513725 0.827451 0.294118 1 0.513725 0.827451 0.294118 1 
0.52549 0.831373 0.286275 1 0.513725 0.827451 0.294118 1 
0.486275 0.823529 0.309804 1 0.486275 0.823529 0.309804 1 
0.584314 0.843137 0.247059 1 0.584314 0.843137 0.247059 1 
0.52549 0.831373 0.286275 1 0.486275 0.823529 0.309804 1 
0.494118 0.823529 0.305882 1 0.494118 0.823529 0.305882 1 
0.494118 0.823529 0.305882 1 0.494118 0.823529 0.305882 1 
0.494118 0.823529 0.305882 1 0.486275 0.823529 0.309804 1 
0.486275 0.823529 0.309804 1 0.486275 0.823529 0.309804 1 
0.486275 0.823529 0.309804 1 0.486275 0.823529 0.309804 1 
0.47451 0.819608 0.317647 1 0.552941 0.839216 0.266667 1 
0.47451 0.819608 0.317647 1 0.47451 0.819608 0.317647 1 
0.47451 0.819608 0.317647 1 0.486275 0.823529 0.309804 1 
0.505882 0.827451 0.298039 1 0.505882 0.827451 0.298039 1 
0.572549 0.843137 0.254902 1 0.572549 0.843137 0.254902 1 
0.545098 0.835294 0.27451 1 0.545098 0.835294 0.27451 1 
0.584314 0.843137 0.247059 1 0.533333 0.835294 0.278431 1 
0.545098 0.835294 0.27451 1 0.533333 0.835294 0.278431 1 
0.533333 0.835294 0.278431 1 0.533333 0.835294 0.278431 1 
0.52549 0.831373 0.286275 1 0.647059 0.854902 0.207843 1 
0.647059 0.854902 0.207843 1 0.647059 0.854902 0.207843 1 
0.654902 0.858824 0.2 1 0.654902 0.858824 0.2 1 
0.603922 0.847059 0.235294 1 0.564706 0.839216 0.262745 1 
0.603922 0.847059 0.235294 1 0.52549 0.831373 0.286275 1 
0.572549 0.843137 0.254902 1 0.564706 0.839216 0.262745 1 
0.564706 0.839216 0.262745 1 0.572549 0.843137 0.254902 1 
0.584314 0.843137 0.247059 1 0.584314 0.843137 0.247059 1 
0.564706 0.839216 0.262745 1 0.552941 0.839216 0.266667 1 
0.552941 0.839216 0.266667 1 0.564706 0.839216 0.262745 1 
0.564706 0.839216 0.262745 1 0.564706 0.839216 0.262745 1 
0.156863 0.682353 0.498039 1 0.156863 0.682353 0.498039 1 
0.156863 0.682353 0.498039 1 0.533333 0.835294 0.278431 1 
0.533333 0.835294 0.278431 1 0.533333 0.835294 0.278431 1 
0.552941 0.839216 0.266667 1 0.552941 0.839216 0.266667 1 
0.545098 0.835294 0.27451 1 0.356863 0.784314 0.384314 1 
0.356863 0.784314 0.384314 1 0.121569 0.639216 0.52549 1 
0.121569 0.639216 0.52549 1 0.121569 0.639216 0.52549 1 
0.121569 0.639216 0.52549 1 0.145098 0.670588 0.505882 1 
0.141176 0.666667 0.509804 1 0.141176 0.666667 0.509804 1 
0.141176 0.666667 0.509804 1 0.356863 0.784314 0.384314 1 
0.356863 0.784314 0.384314 1 0.356863 0.784314 0.384314 1 
0.356863 0.784314 0.384314 1 0.513725 0.827451 0.294118 1 
0.552941 0.839216 0.266667 1 0.552941 0.839216 0.266667 1 
0.172549 0.694118 0.490196 1 0.172549 0.694118 0.490196 1 
0.172549 0.694118 0.490196 1 0.368627 0.788235 0.380392 1 
0.368627 0.788235 0.380392 1 0.376471 0.788235 0.376471 1 
0.333333 0.776471 0.4 1 0.333333 0.776471 0.4 1 
0.333333 0.776471 0.4 1 0.333333 0.776471 0.4 1 
0.333333 0.776471 0.4 1 0.309804 0.764706 0.411765 1 
0.309804 0.764706 0.411765 1 0.317647 0.768627 0.407843 1 
0.317647 0.768627 0.407843 1 0.32549 0.772549 0.403922 1 
0.333333 0.776471 0.4 1 0.32549 0.772549 0.403922 1 
0.32549 0.772549 0.403922 1 0.333333 0.776471 0.4 1 
0.333333 0.776471 0.4 1 0.533333 0.835294 0.278431 1 
0.32549 0.772549 0.403922 1 0.32549 0.772549 0.403922 1 
0.32549 0.772549 0.403922 1 0.317647 0.768627 0.407843 1 
0.243137 0.737255 0.45098 1 0.243137 0.737255 0.45098 1 
0.25098 0.741176 0.447059 1 0.243137 0.737255 0.45098 1 
0.243137 0.737255 0.45098 1 0.25098 0.741176 0.447059 1 
0.25098 0.741176 0.447059 1 0.25098 0.741176 0.447059 1 
0.25098 0.741176 0.447059 1 0.356863 0.784314 0.384314 1 
0.356863 0.784314 0.384314 1 0.243137 0.737255 0.45098 1 
0.243137 0.737255 0.45098 1 0.278431 0.752941 0.431373 1 
0.294118 0.760784 0.423529 1 0.278431 0.752941 0.431373 1 
0.25098 0.741176 0.447059 1 0.243137 0.737255 0.45098 1 
0.243137 0.737255 0.45098 1 0.243137 0.737255 0.45098 1 
0.243137 0.737255 0.45098 1 0.243137 0.737255 0.45098 1 
0.243137 0.737255 0.45098 1 0.25098 0.741176 0.447059 1 
0.25098 0.741176 0.447059 1 0.25098 0.741176 0.447059 1 
0.243137 0.737255 0.45098 1 0.243137 0.737255 0.45098 1 
0.25098 0.741176 0.447059 1 0.25098 0.741176 0.447059 1 
0.239216 0.733333 0.454902 1 0.239216 0.733333 0.454902 1 
0.25098 0.741176 0.447059 1 0.258824 0.745098 0.443137 1 
0.258824 0.745098 0.443137 1 0.278431 0.752941 0.431373 1 
0.294118 0.760784 0.423529 1 0.278431 0.752941 0.431373 1 
0.25098 0.741176 0.447059 1 0.156863 0.682353 0.498039 1 
0.156863 0.682353 0.498039 1 0.223529 0.72549 0.462745 1 
0.223529 0.72549 0.462745 1 0.223529 0.72549 0.462745 1 
0.223529 0.72549 0.462745 1 0.223529 0.72549 0.462745 1 
0.223529 0.72549 0.462745 1 0.223529 0.72549 0.462745 1 
0.223529 0.72549 0.462745 1 0.223529 0.72549 0.462745 1 
0.223529 0.72549 0.462745 1 0.223529 0.72549 0.462745 1 
0.223529 0.72549 0.462745 1 0.223529 0.72549 0.462745 1 
0.223529 0.72549 0.462745 1 0.219608 0.72549 0.462745 1 
0.219608 0.72549 0.462745 1 0.219608 0.72549 0.462745 1 
0.219608 0.72549 0.462745 1 0.219608 0.72549 0.462745 1 
0.219608 0.72549 0.462745 1 0.219608 0.72549 0.462745 1 
0.219608 0.72549 0.462745 1 0.219608 0.72549 0.462745 1 
0.219608 0.72549 0.462745 1 0.219608 0.72549 0.462745 1 
0.219608 0.72549 0.462745 1 0.219608 0.72549 0.462745 1 
0.219608 0.72549 0.462745 1 0.301961 0.760784 0.419608 1 
0.301961 0.760784 0.419608 1 0.301961 0.760784 0.419608 1 
0.301961 0.760784 0.419608 1 0.341176 0.776471 0.396078 1 
0.294118 0.760784 0.423529 1 0.294118 0.760784 0.423529 1 
0.34902 0.780392 0.392157 1 0.34902 0.780392 0.392157 1 
0.333333 0.776471 0.4 1 0.333333 0.776471 0.4 1 
0.32549 0.772549 0.403922 1 0.294118 0.760784 0.423529 1 
0.301961 0.760784 0.419608 1 0.356863 0.784314 0.384314 1 
0.309804 0.764706 0.411765 1 0.309804 0.764706 0.411765 1 
0.301961 0.760784 0.419608 1 0.301961 0.760784 0.419608 1 
0.301961 0.760784 0.419608 1 0.309804 0.764706 0.411765 1 
0.32549 0.772549 0.403922 1 0.317647 0.768627 0.407843 1 
0.309804 0.764706 0.411765 1 0.309804 0.764706 0.411765 1 
0.32549 0.772549 0.403922 1 0.32549 0.772549 0.403922 1 
0.333333 0.776471 0.4 1 0.368627 0.788235 0.380392 1 
0.368627 0.788235 0.380392 1 0.411765 0.8 0.356863 1 
0.411765 0.8 0.356863 1 0.411765 0.8 0.356863 1 
0.411765 0.8 0.356863 1 0.419608 0.803922 0.34902 1 
0.411765 0.8 0.356863 1 0.419608 0.803922 0.34902 1 
0.419608 0.803922 0.34902 1 0.419608 0.803922 0.34902 1 
0.419608 0.803922 0.34902 1 0.427451 0.807843 0.345098 1 
0.419608 0.803922 0.34902 1 0.882353 0.890196 0.0941176 1 
0.882353 0.890196 0.0941176 1 0.913725 0.894118 0.0980392 1 
0.905882 0.894118 0.0980392 1 0.894118 0.890196 0.0941176 1 
0.894118 0.890196 0.0941176 1 0.882353 0.890196 0.0941176 1 
0.92549 0.894118 0.101961 1 0.92549 0.894118 0.101961 1 
0.905882 0.894118 0.0980392 1 0.92549 0.894118 0.101961 1 
0.894118 0.890196 0.0941176 1 0.894118 0.890196 0.0941176 1 
0.894118 0.890196 0.0941176 1 0.894118 0.890196 0.0941176 1 
0.894118 0.890196 0.0941176 1 0.894118 0.890196 0.0941176 1 
0.972549 0.901961 0.129412 1 0.992157 0.905882 0.141176 1 
0.913725 0.894118 0.0980392 1 0.980392 0.901961 0.133333 1 
0.972549 0.901961 0.129412 1 0.494118 0.823529 0.305882 1 
0.494118 0.823529 0.305882 1 0.494118 0.823529 0.305882 1 
0.486275 0.823529 0.309804 1 0.486275 0.823529 0.309804 1 
0.494118 0.823529 0.305882 1 0.494118 0.823529 0.305882 1 
0.494118 0.823529 0.305882 1 0.505882 0.827451 0.298039 1 
0.47451 0.819608 0.317647 1 0.47451 0.819608 0.317647 1 
0.47451 0.819608 0.317647 1 0.47451 0.819608 0.317647 1 
0.47451 0.819608 0.317647 1 0.486275 0.823529 0.309804 1 
0.47451 0.819608 0.317647 1 0.47451 0.819608 0.317647 1 
0.47451 0.819608 0.317647 1 0.427451 0.807843 0.345098 1 
0.439216 0.807843 0.337255 1 0.403922 0.8 0.360784 1 
0.403922 0.8 0.360784 1 0.403922 0.8 0.360784 1 
0.403922 0.8 0.360784 1 0.384314 0.792157 0.372549 1 
0.392157 0.796078 0.364706 1 0.384314 0.792157 0.372549 1 
0.384314 0.792157 0.372549 1 0.376471 0.788235 0.376471 1 
0.376471 0.788235 0.376471 1 0.384314 0.792157 0.372549 1 
0.384314 0.792157 0.372549 1 0.376471 0.788235 0.376471 1 
0.376471 0.788235 0.376471 1 0.368627 0.788235 0.380392 1 
0.368627 0.788235 0.380392 1 0.376471 0.788235 0.376471 1 
0.411765 0.8 0.356863 1 0.392157 0.796078 0.364706 1 
0.403922 0.8 0.360784 1 0.403922 0.8 0.360784 1 
0.376471 0.788235 0.376471 1 0.376471 0.788235 0.376471 1 
0.376471 0.788235 0.376471 1 0.376471 0.788235 0.376471 1 
0.376471 0.788235 0.376471 1 0.403922 0.8 0.360784 1 
0.368627 0.788235 0.380392 1 0.301961 0.760784 0.419608 1 
0.301961 0.760784 0.419608 1 0.368627 0.788235 0.380392 1 
0.301961 0.760784 0.419608 1 0.301961 0.760784 0.419608 1 
0.301961 0.760784 0.419608 1 0.411765 0.8 0.356863 1 
0.34902 0.780392 0.392157 1 0.356863 0.784314 0.384314 1 
0.34902 0.780392 0.392157 1 0.356863 0.784314 0.384314 1 
0.356863 0.784314 0.384314 1 0.34902 0.780392 0.392157 1 
0.34902 0.780392 0.392157 1 0.34902 0.780392 0.392157 1 
0.34902 0.780392 0.392157 1 0.34902 0.780392 0.392157 1 
0.34902 0.780392 0.392157 1 0.356863 0.784314 0.384314 1 
0.34902 0.780392 0.392157 1 0.34902 0.780392 0.392157 1 
0.34902 0.780392 0.392157 1 0.34902 0.780392 0.392157 1 
0.258824 0.745098 0.443137 1 0.258824 0.745098 0.443137 1 
0.356863 0.784314 0.384314 1 0.356863 0.784314 0.384314 1 
0.368627 0.788235 0.380392 1 0.368627 0.788235 0.380392 1 
0.368627 0.788235 0.380392 1 0.376471 0.788235 0.376471 1 
0.356863 0.784314 0.384314 1 0.356863 0.784314 0.384314 1 
0.356863 0.784314 0.384314 1 0.356863 0.784314 0.384314 1 
0.368627 0.788235 0.380392 1 0.34902 0.780392 0.392157 1 
0.34902 0.780392 0.392157 1 0.34902 0.780392 0.392157 1 
0.34902 0.780392 0.392157 1 0.34902 0.780392 0.392157 1 
0.34902 0.780392 0.392157 1 0.356863 0.784314 0.384314 1 
0.34902 0.780392 0.392157 1 0.341176 0.776471 0.396078 1 
0.341176 0.776471 0.396078 1 0.34902 0.780392 0.392157 1 
0.341176 0.776471 0.396078 1 0.34902 0.780392 0.392157 1 
0.34902 0.780392 0.392157 1 0.34902 0.780392 0.392157 1 
0.356863 0.784314 0.384314 1 0.356863 0.784314 0.384314 1 
0.419608 0.803922 0.34902 1 0.419608 0.803922 0.34902 1 
0.384314 0.792157 0.372549 1 0.384314 0.792157 0.372549 1 
0.376471 0.788235 0.376471 1 0.384314 0.792157 0.372549 1 
0.376471 0.788235 0.376471 1 0.376471 0.788235 0.376471 1 
0.376471 0.788235 0.376471 1 0.384314 0.792157 0.372549 1 
0.513725 0.827451 0.294118 1 0.427451 0.807843 0.345098 1 
0.466667 0.815686 0.321569 1 0.47451 0.819608 0.317647 1 
0.454902 0.815686 0.329412 1 0.47451 0.819608 0.317647 1 
0.47451 0.819608 0.317647 1 0.47451 0.819608 0.317647 1 
0.278431 0.752941 0.431373 1 0.419608 0.803922 0.34902 1 
0.403922 0.8 0.360784 1 0.403922 0.8 0.360784 1 
0.376471 0.788235 0.376471 1 0.403922 0.8 0.360784 1 
0.392157 0.796078 0.364706 1 0.384314 0.792157 0.372549 1 
0.411765 0.8 0.356863 1 0.376471 0.788235 0.376471 1 
0.403922 0.8 0.360784 1 0.403922 0.8 0.360784 1 
0.403922 0.8 0.360784 1 0.403922 0.8 0.360784 1 
0.403922 0.8 0.360784 1 0.384314 0.792157 0.372549 1 
0.133333 0.654902 0.517647 1 0.129412 0.654902 0.517647 1 
0.392157 0.796078 0.364706 1 0.384314 0.792157 0.372549 1 
0.384314 0.792157 0.372549 1 0.384314 0.792157 0.372549 1 
0.384314 0.792157 0.372549 1 0.266667 0.745098 0.439216 1 
0.258824 0.745098 0.443137 1 0.258824 0.745098 0.443137 1 
0.117647 0.619608 0.533333 1 0.117647 0.619608 0.533333 1 
0.117647 0.619608 0.533333 1 0.117647 0.619608 0.533333 1 
0.117647 0.619608 0.533333 1 0.12549 0.647059 0.521569 1 
0.12549 0.647059 0.521569 1 0.258824 0.745098 0.443137 1 
0.258824 0.745098 0.443137 1 0.368627 0.788235 0.380392 1 
0.368627 0.788235 0.380392 1 0.368627 0.788235 0.380392 1 
0.384314 0.792157 0.372549 1 0.34902 0.780392 0.392157 1 
0.278431 0.752941 0.431373 1 0.141176 0.666667 0.509804 1 
0.141176 0.666667 0.509804 1 0.266667 0.745098 0.439216 1 
0.231373 0.729412 0.458824 1 0.231373 0.729412 0.458824 1 
0.266667 0.745098 0.439216 1 0.376471 0.788235 0.376471 1 
0.270588 0.74902 0.435294 1 0.376471 0.788235 0.376471 1 
0.368627 0.788235 0.380392 1 0.270588 0.74902 0.435294 1 
0.266667 0.745098 0.439216 1 0.25098 0.741176 0.447059 1 
0.231373 0.729412 0.458824 1 0.243137 0.737255 0.45098 1 
0.239216 0.733333 0.454902 1 0.25098 0.741176 0.447059 1 
0.239216 0.733333 0.454902 1 0.376471 0.788235 0.376471 1 
0.239216 0.733333 0.454902 1 0.392157 0.796078 0.364706 1 
0.239216 0.733333 0.454902 1 0.392157 0.796078 0.364706 1 
0.392157 0.796078 0.364706 1 0.392157 0.796078 0.364706 1 
0.392157 0.796078 0.364706 1 0.258824 0.745098 0.443137 1 
0.243137 0.737255 0.45098 1 0.184314 0.701961 0.482353 1 
0.243137 0.737255 0.45098 1 0.184314 0.701961 0.482353 1 
0.184314 0.701961 0.482353 1 0.188235 0.705882 0.478431 1 
0.258824 0.745098 0.443137 1 0.258824 0.745098 0.443137 1 
0.258824 0.745098 0.443137 1 0.258824 0.745098 0.443137 1 
0.258824 0.745098 0.443137 1 0.258824 0.745098 0.443137 1 
0.207843 0.717647 0.470588 1 0.2 0.713725 0.47451 1 
0.196078 0.709804 0.478431 1 0.196078 0.709804 0.478431 1 
0.188235 0.705882 0.478431 1 0.188235 0.705882 0.478431 1 
0.188235 0.705882 0.478431 1 0.188235 0.705882 0.478431 1 
0.188235 0.705882 0.478431 1 0.184314 0.701961 0.482353 1 
0.184314 0.701961 0.482353 1 0.184314 0.701961 0.482353 1 
0.184314 0.701961 0.482353 1 0.184314 0.701961 0.482353 1 
0.184314 0.701961 0.482353 1 0.184314 0.701961 0.482353 1 
0.184314 0.701961 0.482353 1 0.184314 0.701961 0.482353 1 
0.188235 0.705882 0.478431 1 0.188235 0.705882 0.478431 1 
0.196078 0.709804 0.478431 1 0.196078 0.709804 0.478431 1 
0.207843 0.717647 0.470588 1 0.207843 0.717647 0.470588 1 
0.196078 0.709804 0.478431 1 0.133333 0.654902 0.517647 1 
0.133333 0.654902 0.517647 1 0.172549 0.694118 0.490196 1 
0.172549 0.694118 0.490196 1 0.172549 0.694118 0.490196 1 
0.172549 0.694118 0.490196 1 0.172549 0.694118 0.490196 1 
0.172549 0.694118 0.490196 1 0.172549 0.694118 0.490196 1 
0.172549 0.694118 0.490196 1 0.168627 0.694118 0.490196 1 
0.168627 0.694118 0.490196 1 0.168627 0.694118 0.490196 1 
0.168627 0.694118 0.490196 1 0.168627 0.694118 0.490196 1 
0.168627 0.694118 0.490196 1 0.168627 0.694118 0.490196 1 
0.168627 0.694118 0.490196 1 0.168627 0.694118 0.490196 1 
0.168627 0.694118 0.490196 1 0.168627 0.694118 0.490196 1 
0.168627 0.694118 0.490196 1 0.168627 0.694118 0.490196 1 
0.168627 0.694118 0.490196 1 0.168627 0.694118 0.490196 1 
0.168627 0.694118 0.490196 1 0.168627 0.694118 0.490196 1 
0.168627 0.694118 0.490196 1 0.168627 0.694118 0.490196 1 
0.168627 0.694118 0.490196 1 0.2 0.713725 0.47451 1 
0.2 0.713725 0.47451 1 0.239216 0.733333 0.454902 1 
0.2 0.713725 0.47451 1 0.211765 0.721569 0.466667 1 
0.211765 0.721569 0.466667 1 0.211765 0.721569 0.466667 1 
0.219608 0.72549 0.462745 1 0.219608 0.72549 0.462745 1 
0.239216 0.733333 0.454902 1 0.219608 0.72549 0.462745 1 
0.219608 0.72549 0.462745 1 0.219608 0.72549 0.462745 1 
0.231373 0.729412 0.458824 1 0.231373 0.729412 0.458824 1 
0.239216 0.733333 0.454902 1 0.239216 0.733333 0.454902 1 
0.231373 0.729412 0.458824 1 0.223529 0.72549 0.462745 1 
0.223529 0.72549 0.462745 1 0.223529 0.72549 0.462745 1 
0.223529 0.72549 0.462745 1 0.223529 0.72549 0.462745 1 
0.231373 0.729412 0.458824 1 0.239216 0.733333 0.454902 1 
0.243137 0.737255 0.45098 1 0.243137 0.737255 0.45098 1 
0.266667 0.745098 0.439216 1 0.239216 0.733333 0.454902 1 
0.239216 0.733333 0.454902 1 0.239216 0.733333 0.454902 1 
0.376471 0.788235 0.376471 1 0.258824 0.745098 0.443137 1 
0.258824 0.745098 0.443137 1 0.258824 0.745098 0.443137 1 
0.266667 0.745098 0.439216 1 0.309804 0.764706 0.411765 1 
0.301961 0.760784 0.419608 1 0.301961 0.760784 0.419608 1 
0.301961 0.760784 0.419608 1 0.301961 0.760784 0.419608 1 
0.301961 0.760784 0.419608 1 0.309804 0.764706 0.411765 1 
0.647059 0.854902 0.207843 1 0.647059 0.854902 0.207843 1 
0.654902 0.858824 0.2 1 0.647059 0.854902 0.207843 1 
0.647059 0.854902 0.207843 1 0.666667 0.858824 0.196078 1 
0.686275 0.862745 0.180392 1 0.666667 0.858824 0.196078 1 
0.666667 0.858824 0.196078 1 0.678431 0.862745 0.188235 1 
0.654902 0.858824 0.2 1 0.666667 0.858824 0.196078 1 
0.678431 0.862745 0.188235 1 0.678431 0.862745 0.188235 1 
0.698039 0.866667 0.172549 1 0.686275 0.862745 0.180392 1 
0.686275 0.862745 0.180392 1 0.686275 0.862745 0.180392 1 
0.686275 0.862745 0.180392 1 0.654902 0.858824 0.2 1 
0.698039 0.866667 0.172549 1 0.698039 0.866667 0.172549 1 
0.741176 0.870588 0.14902 1 0.741176 0.870588 0.14902 1 
0.368627 0.788235 0.380392 1 0.356863 0.784314 0.384314 1 
0.356863 0.784314 0.384314 1 0.356863 0.784314 0.384314 1 
0.356863 0.784314 0.384314 1 0.356863 0.784314 0.384314 1 
0.368627 0.788235 0.380392 1 0.368627 0.788235 0.380392 1 
0.34902 0.780392 0.392157 1 0.34902 0.780392 0.392157 1 
0.34902 0.780392 0.392157 1 0.34902 0.780392 0.392157 1 
0.34902 0.780392 0.392157 1 0.368627 0.788235 0.380392 1 
0.32549 0.772549 0.403922 1 0.32549 0.772549 0.403922 1 
0.301961 0.760784 0.419608 1 0.301961 0.760784 0.419608 1 
0.301961 0.760784 0.419608 1 0.294118 0.760784 0.423529 1 
0.294118 0.760784 0.423529 1 0.294118 0.760784 0.423529 1 
0.294118 0.760784 0.423529 1 0.294118 0.760784 0.423529 1 
0.301961 0.760784 0.419608 1 0.309804 0.764706 0.411765 1 
0.309804 0.764706 0.411765 1 0.309804 0.764706 0.411765 1 
0.278431 0.752941 0.431373 1 0.278431 0.752941 0.431373 1 
0.278431 0.752941 0.431373 1 0.278431 0.752941 0.431373 1 
0.278431 0.752941 0.431373 1 0.286275 0.756863 0.427451 1 
0.278431 0.752941 0.431373 1 0.278431 0.752941 0.431373 1 
0.278431 0.752941 0.431373 1 0.278431 0.752941 0.431373 1 
0.278431 0.752941 0.431373 1 0.270588 0.74902 0.435294 1 
0.270588 0.74902 0.435294 1 0.270588 0.74902 0.435294 1 
0.231373 0.729412 0.458824 1 0.231373 0.729412 0.458824 1 
0.231373 0.729412 0.458824 1 0.231373 0.729412 0.458824 1 
0.309804 0.764706 0.411765 1 0.258824 0.745098 0.443137 1 
0.266667 0.745098 0.439216 1 0.266667 0.745098 0.439216 1 